 Gaussian 16, Revision A.03,
 Gaussian 16:  ES64L-G16RevA.03 25-Dec-2016

 ----------------------------------------------------
 #p opt=tight freq hf/6-311++g(d,p) geom=connectivity
 ----------------------------------------------------

 -------------------
 Title Card Required
 -------------------
 Symbolic Z-matrix:
 Charge =  0 Multiplicity = 1

 SCF Done:  E(RHF) =  -154.127959745     A.U. after   11 cycles
 SCF Done:  E(RHF) =  -154.130100572     A.U. after   10 cycles
 SCF Done:  E(RHF) =  -154.130225192     A.U. after    8 cycles
 SCF Done:  E(RHF) =  -154.130237896     A.U. after    8 cycles
 SCF Done:  E(RHF) =  -154.130238111     A.U. after    7 cycles
 SCF Done:  E(RHF) =  -154.130238124     A.U. after    6 cycles
 SCF Done:  E(RHF) =  -154.130238126     A.U. after    5 cycles
 SCF Done:  E(RHF) =  -154.130238127     A.U. after    5 cycles
 SCF Done:  E(RHF) =  -154.130238127     A.U. after    5 cycles
 Optimization completed.
    -- Stationary point found.
 Normal termination of Gaussian 16 at Mon Oct 10 14:42:31 2022.

 ----------------------------------------------------------------------
 #P Geom=AllCheck Guess=TCheck SCRF=Check GenChk RHF/6-311++G(d,p) Freq
 ----------------------------------------------------------------------

 Structure from the checkpoint file:  "c2h5oh.chk"
 -------------------
 Title Card Required
 -------------------
 Charge =  0 Multiplicity = 1

                         Standard orientation:
 ---------------------------------------------------------------------
 Center     Atomic      Atomic             Coordinates (Angstroms)
 Number     Number       Type             X           Y           Z
 ---------------------------------------------------------------------
      1          6           0       -0.090702    0.540867   -0.000002
      2          1           0       -0.151805    1.180207    0.879393
      3          1           0       -0.151800    1.180205   -0.879399
      4          6           0        1.219728   -0.218010    0.000003
      5          1           0        1.292284   -0.849055    0.879611
      6          1           0        1.292284   -0.849063   -0.879600
      7          1           0        2.057279    0.474045   -0.000001
      8          8           0       -1.142720   -0.390947   -0.000006
      9          1           0       -1.970634    0.054089    0.000040
 ---------------------------------------------------------------------

 SCF Done:  E(RHF) =  -154.130238127     A.U. after    1 cycles

 The electronic state is 1-A.
 Alpha  occ. eigenvalues --  -20.55196 -11.27334 -11.21046  -1.36878  -1.01517
 Alpha  occ. eigenvalues --   -0.83987  -0.70979  -0.64942  -0.57438  -0.53629
 Alpha  occ. eigenvalues --   -0.52756  -0.48730  -0.44164
 Alpha virt. eigenvalues --    0.04061   0.05642   0.06561   0.06770   0.09097
 Alpha virt. eigenvalues --    0.09989   0.13738   0.15015   0.15260   0.16346
 Alpha virt. eigenvalues --    0.18454   0.19327   0.20380   0.20661   0.29295

 Mulliken charges:
               1
     1  C   -0.146501
     2  H    0.105725
     3  H    0.105727
     4  C   -0.391935
     5  H    0.141414
     6  H    0.141416
     7  H    0.114505
     8  O   -0.336410
     9  H    0.266058
 Sum of Mulliken charges =  -0.00000

 Dipole moment (field-independent basis, Debye):
    X=             -0.1433    Y=              1.8134    Z=              0.0001  Tot=              1.8190
 Quadrupole moment (field-independent basis, Debye-Ang):
   XX=            -17.0918   YY=            -20.9052   ZZ=            -20.1885
   XY=             -2.1645   XZ=             -0.0002   YZ=              0.0000

  Exact polarizability:  30.645  -0.145  27.938  -0.000  -0.000  26.429
 Approx polarizability:  24.073   0.227  23.977  -0.000   0.000  23.236

                      1                      2                      3
                      A                      A                      A
 Frequencies --    261.4012               295.1596               446.8700
 Red. masses --      1.1557                 1.0682                 2.6370
 Frc consts  --      0.0465                 0.0548                 0.3103
 IR Inten    --     72.1147                80.1513                12.7656
 Raman Activ --      0.2808                 1.4008                 0.4253

                      4                      5                      6
                      A                      A                      A
 Frequencies --    877.4412               967.0398              1122.9494
 Red. masses --      1.0833                 2.2174                 1.7592
 Frc consts  --      0.4914                 1.2218                 1.3070
 IR Inten    --      0.0229                 7.7690                58.4851
 Raman Activ --      0.1152                 9.2918                 3.8808

                      7                      8                      9
                      A                      A                      A
 Frequencies --   1198.8220              1282.5302              1369.9536
 Red. masses --      2.3804                 1.5346                 1.3761
 Frc consts  --      2.0156                 1.4872                 1.5217
 IR Inten    --     36.2294                 5.8490               107.9450
 Raman Activ --      8.2961                 0.3524                 2.0573

                     10                     11                     12
                      A                      A                      A
 Frequencies --   1412.9038              1520.9926              1585.1472
 Red. masses --      1.0963                 1.2335                 1.3990
 Frc consts  --      1.2894                 1.6813                 2.0711
 IR Inten    --      0.2133                 0.2323                15.3297
 Raman Activ --      9.1845                 0.1332                 4.6433

                     13                     14                     15
                      A                      A                      A
 Frequencies --   1597.3873              1616.5851              1652.9940
 Red. masses --      1.0406                 1.0756                 1.0942
 Frc consts  --      1.5644                 1.6561                 1.7615
 IR Inten    --      4.8495                 2.6067                 2.5528
 Raman Activ --      9.7109                 9.8631                 4.8310

                     16                     17                     18
                      A                      A                      A
 Frequencies --   3139.5734              3163.7856              3168.3022
 Red. masses --      1.0560                 1.1082                 1.0374
 Frc consts  --      6.1327                 6.5355                 6.1355
 IR Inten    --     78.6067                61.7519                21.8198
 Raman Activ --     94.9813               106.8170               195.4388

                     19                     20                     21
                      A                      A                      A
 Frequencies --   3230.4437              3242.5247              4188.3436
 Red. masses --      1.1015                 1.1045                 1.0672
 Frc consts  --      6.7728                 6.8417                11.0301
 IR Inten    --     51.5960                57.0408                58.0365
 Raman Activ --     60.1274                39.1381                83.7018

 - Thermochemistry -
 -------------------
 Temperature   298.150 Kelvin.  Pressure   1.00000 Atm.
 Atom     1 has atomic number  6 and mass  12.00000

 Molecular mass:    46.04186 amu.
 Principal axes and moments of inertia in atomic units:
                           1         2         3
     Eigenvalues --    50.13035 191.03225 218.89131
           X            0.99917  -0.04080  -0.00000
           Y            0.04080   0.99917  -0.00000
           Z            0.00000   0.00000   1.00000
 This molecule is an asymmetric top.
 Rotational symmetry number  1.
 Rotational temperatures (Kelvin)      1.72777     0.45340     0.39569
 Rotational constants (GHZ):          36.00097     9.44731     8.24492
 Zero-point vibrational energy     223349.7 (Joules/Mol)
                                   53.38185 (Kcal/Mol)
 Warning -- explicit consideration of   3 degrees of freedom as
           vibrations may cause significant error
 Vibrational temperatures:    376.10   424.67   642.95  1262.44  1391.35
          (Kelvin)           1615.67  1724.84  1845.27  1971.06  2032.85
                             2188.37  2280.67  2298.28  2325.91  2378.29
                             4517.15  4551.98  4558.48  4647.89  4665.27
                             6026.09

 Zero-point correction=                           0.085069 (Hartree/Particle)
 Thermal correction to Energy=                    0.089250
 Thermal correction to Enthalpy=                  0.090194
 Thermal correction to Gibbs Free Energy=         0.059768
 Sum of electronic and zero-point Energies=           -154.045169
 Sum of electronic and thermal Energies=              -154.040988
 Sum of electronic and thermal Enthalpies=            -154.040044
 Sum of electronic and thermal Free Energies=         -154.070471

                     E (Thermal)             CV                S
                      KCal/Mol        Cal/Mol-Kelvin    Cal/Mol-Kelvin
 Total                   56.005             12.815             64.038
 Electronic               0.000              0.000              0.000
 Translational            0.889              2.981             37.406
 Rotational               0.889              2.981             22.265
 Vibrational             54.228              6.854              4.367
 Vibration     1          0.669              1.743              1.652
 Vibration     2          0.689              1.683              1.444
 Vibration     3          0.806              1.368              0.805

 Optimization completed.
    -- Stationary point found.
 Normal termination of Gaussian 16 at Mon Oct 10 14:42:34 2022.
