 Gaussian 16, Revision A.03,
 Gaussian 16:  ES64L-G16RevA.03 25-Dec-2016

 ----------------------------------------------------
 #p opt=tight freq hf/6-311++g(d,p) geom=connectivity
 ----------------------------------------------------

 -------------------
 Title Card Required
 -------------------
 Symbolic Z-matrix:
 Charge =  0 Multiplicity = 1

 SCF Done:  E(RHF) =  -79.2501255982     A.U. after    9 cycles
 SCF Done:  E(RHF) =  -79.2518536809     A.U. after    9 cycles
 SCF Done:  E(RHF) =  -79.2519326330     A.U. after    7 cycles
 SCF Done:  E(RHF) =  -79.2519346324     A.U. after    6 cycles
 SCF Done:  E(RHF) =  -79.2519346508     A.U. after    5 cycles
 Optimization completed.
    -- Stationary point found.
 Normal termination of Gaussian 16 at Mon Oct 10 14:39:29 2022.

 ----------------------------------------------------------------------
 #P Geom=AllCheck Guess=TCheck SCRF=Check GenChk RHF/6-311++G(d,p) Freq
 ----------------------------------------------------------------------

 Structure from the checkpoint file:  "c2h6_e.chk"
 -------------------
 Title Card Required
 -------------------
 Charge =  0 Multiplicity = 1

                         Standard orientation:
 ---------------------------------------------------------------------
 Center     Atomic      Atomic             Coordinates (Angstroms)
 Number     Number       Type             X           Y           Z
 ---------------------------------------------------------------------
      1          6           0       -0.000000   -0.000000    0.763495
      2          1           0       -0.506414    0.877134    1.156229
      3          1           0        1.012828   -0.000000    1.156229
      4          1           0       -0.506414   -0.877134    1.156229
      5          6           0        0.000000    0.000000   -0.763495
      6          1           0        0.506414    0.877134   -1.156229
      7          1           0        0.506414   -0.877134   -1.156229
      8          1           0       -1.012828   -0.000000   -1.156229
 ---------------------------------------------------------------------

 SCF Done:  E(RHF) =  -79.2519346508     A.U. after    1 cycles

 The electronic state is 1-A1.
 Alpha  occ. eigenvalues --  -11.21024 -11.20964  -1.01925  -0.84387  -0.59805
 Alpha  occ. eigenvalues --   -0.59805  -0.50944  -0.48795  -0.48795
 Alpha virt. eigenvalues --    0.04416   0.05963   0.06784   0.06784   0.09922
 Alpha virt. eigenvalues --    0.09922   0.14341   0.14913   0.14913   0.17522
 Alpha virt. eigenvalues --    0.19649   0.20330   0.20330   0.20653   0.30209

 Mulliken charges:
               1
     1  C   -0.340934
     2  H    0.113645
     3  H    0.113645
     4  H    0.113645
     5  C   -0.340934
     6  H    0.113645
     7  H    0.113645
     8  H    0.113645
 Sum of Mulliken charges =  -0.00000

 Dipole moment (field-independent basis, Debye):
    X=             -0.0000    Y=             -0.0000    Z=             -0.0000  Tot=              0.0000
 Quadrupole moment (field-independent basis, Debye-Ang):
   XX=            -14.9599   YY=            -14.9599   ZZ=            -15.6761
   XY=              0.0000   XZ=              0.0000   YZ=             -0.0000

  Exact polarizability:  24.373  -0.000  24.373  -0.000  -0.000  26.315
 Approx polarizability:  21.160  -0.000  21.160  -0.000  -0.000  20.401

                      1                      2                      3
                     A1                      E                      E
 Frequencies --    329.3951               880.8577               880.8577
 Red. masses --      1.0078                 1.0565                 1.0565
 Frc consts  --      0.0644                 0.4830                 0.4830
 IR Inten    --      0.0000                 2.2018                 2.2018
 Raman Activ --      0.0000                 0.0000                 0.0000

                      4                      5                      6
                     A1                      E                      E
 Frequencies --   1051.5813              1319.7690              1319.7690
 Red. masses --      3.1123                 1.4583                 1.4583
 Frc consts  --      2.0278                 1.4965                 1.4965
 IR Inten    --      0.0000                 0.0000                 0.0000
 Raman Activ --     16.7218                 0.7146                 0.7146

                      7                      8                      9
                     A2                     A1                      E
 Frequencies --   1516.9098              1549.6404              1615.1013
 Red. masses --      1.1988                 1.2773                 1.0203
 Frc consts  --      1.6252                 1.8072                 1.5681
 IR Inten    --      0.5271                 0.0000                 0.0000
 Raman Activ --      0.0000                 1.1305                21.9955

                     10                     11                     12
                      E                      E                      E
 Frequencies --   1615.1013              1618.5487              1618.5487
 Red. masses --      1.0203                 1.0629                 1.0629
 Frc consts  --      1.5681                 1.6405                 1.6405
 IR Inten    --      0.0000                 8.5969                 8.5969
 Raman Activ --     21.9955                 0.0000                 0.0000

                     13                     14                     15
                     A2                     A1                      E
 Frequencies --   3154.6766              3162.1567              3201.4725
 Red. masses --      1.0337                 1.0378                 1.1025
 Frc consts  --      6.0613                 6.1139                 6.6578
 IR Inten    --     77.0268                 0.0000                 0.0000
 Raman Activ --      0.0000               303.1685               152.8755

                     16                     17                     18
                      E                      E                      E
 Frequencies --   3201.4725              3227.9136              3227.9136
 Red. masses --      1.1025                 1.1033                 1.1033
 Frc consts  --      6.6578                 6.7730                 6.7730
 IR Inten    --      0.0000               106.1210               106.1210
 Raman Activ --    152.8755                 0.0000                 0.0000

 - Thermochemistry -
 -------------------
 Temperature   298.150 Kelvin.  Pressure   1.00000 Atm.
 Atom     1 has atomic number  6 and mass  12.00000

 Molecular mass:    30.04695 amu.
 Principal axes and moments of inertia in atomic units:
                           1         2         3
     Eigenvalues --    22.15160  89.90398  89.90398
           X           -0.00000   0.72831  -0.68525
           Y           -0.00000   0.68525   0.72831
           Z            1.00000   0.00000  -0.00000
 This molecule is a prolate symmetric top.
 Rotational symmetry number  6.
 Rotational temperatures (Kelvin)      3.91005     0.96340     0.96340
 Rotational constants (GHZ):          81.47227    20.07410    20.07410
 Zero-point vibrational energy     206306.1 (Joules/Mol)
                                   49.30834 (Kcal/Mol)
 Warning -- explicit consideration of   1 degrees of freedom as
           vibrations may cause significant error
 Vibrational temperatures:    473.93  1267.36  1267.36  1512.99  1898.85
          (Kelvin)           1898.85  2182.49  2229.59  2323.77  2323.77
                             2328.73  2328.73  4538.88  4549.64  4606.20
                             4606.20  4644.25  4644.25

 Zero-point correction=                           0.078578 (Hartree/Particle)
 Thermal correction to Energy=                    0.081983
 Thermal correction to Enthalpy=                  0.082927
 Thermal correction to Gibbs Free Energy=         0.057206
 Sum of electronic and zero-point Energies=            -79.173357
 Sum of electronic and thermal Energies=               -79.169952
 Sum of electronic and thermal Enthalpies=             -79.169008
 Sum of electronic and thermal Free Energies=          -79.194729

                     E (Thermal)             CV                S
                      KCal/Mol        Cal/Mol-Kelvin    Cal/Mol-Kelvin
 Total                   51.445              9.565             54.134
 Electronic               0.000              0.000              0.000
 Translational            0.889              2.981             36.134
 Rotational               0.889              2.981             16.260
 Vibrational             49.667              3.604              1.740
 Vibration     1          0.712              1.617              1.263

 Optimization completed.
    -- Stationary point found.
 Normal termination of Gaussian 16 at Mon Oct 10 14:39:31 2022.
