 Gaussian 16, Revision A.03,
 Gaussian 16:  ES64L-G16RevA.03 25-Dec-2016

 -------------------------------------------------------------------
 #p opt=(tight,modredundant) freq hf/6-311++g(d,p) geom=connectivity
 -------------------------------------------------------------------

 -------------------
 Title Card Required
 -------------------
 Symbolic Z-matrix:
 Charge =  0 Multiplicity = 1

 SCF Done:  E(RHF) =  -79.2447345567     A.U. after    9 cycles
 SCF Done:  E(RHF) =  -79.2468798552     A.U. after    8 cycles
 SCF Done:  E(RHF) =  -79.2470571233     A.U. after    8 cycles
 SCF Done:  E(RHF) =  -79.2470629521     A.U. after    7 cycles
 SCF Done:  E(RHF) =  -79.2470629741     A.U. after    5 cycles
 Optimization completed.
    -- Stationary point found.
 Normal termination of Gaussian 16 at Mon Oct 10 14:39:56 2022.

 ----------------------------------------------------------------------
 #P Geom=AllCheck Guess=TCheck SCRF=Check GenChk RHF/6-311++G(d,p) Freq
 ----------------------------------------------------------------------

 Structure from the checkpoint file:  "c2h6_s.chk"
 -------------------
 Title Card Required
 -------------------
 Charge =  0 Multiplicity = 1

                         Standard orientation:
 ---------------------------------------------------------------------
 Center     Atomic      Atomic             Coordinates (Angstroms)
 Number     Number       Type             X           Y           Z
 ---------------------------------------------------------------------
      1          6           0        0.737447   -0.042811    0.219129
      2          1           0        1.032324   -1.064818    0.434382
      3          1           0        0.923236    0.540627    1.115157
      4          1           0        1.405949    0.329046   -0.550684
      5          6           0       -0.737447    0.042811   -0.219129
      6          1           0       -1.317770    0.670723    0.449254
      7          1           0       -0.835057    0.459142   -1.216588
      8          1           0       -1.208682   -0.934721   -0.231521
 ---------------------------------------------------------------------

 SCF Done:  E(RHF) =  -79.2470629741     A.U. after    1 cycles

 The electronic state is 1-A.
 Alpha  occ. eigenvalues --  -11.20975 -11.20919  -1.01529  -0.84632  -0.59650
 Alpha  occ. eigenvalues --   -0.59650  -0.50846  -0.48623  -0.48623
 Alpha virt. eigenvalues --    0.04497   0.05729   0.07203   0.07203   0.09874
 Alpha virt. eigenvalues --    0.09874   0.14352   0.15745   0.15745   0.17569
 Alpha virt. eigenvalues --    0.19989   0.20214   0.20214   0.20342   0.27833

 Mulliken charges:
               1
     1  C   -0.356014
     2  H    0.118671
     3  H    0.118671
     4  H    0.118671
     5  C   -0.356014
     6  H    0.118671
     7  H    0.118671
     8  H    0.118671
 Sum of Mulliken charges =   0.00000

 Dipole moment (field-independent basis, Debye):
    X=             -0.0000    Y=              0.0000    Z=              0.0000  Tot=              0.0000
 Quadrupole moment (field-independent basis, Debye-Ang):
   XX=            -15.6007   YY=            -14.9415   ZZ=            -14.9977
   XY=              0.0384   XZ=             -0.1965   YZ=              0.0114

  Exact polarizability:  25.451  -0.067  24.296   0.345  -0.020  24.394
 Approx polarizability:  19.628   0.089  21.151  -0.454   0.026  21.021

 ******    1 imaginary frequencies (negative Signs) ******

                      1                      2                      3
                      A                      A                      A
 Frequencies --   -318.9469               955.6685               955.6685
 Red. masses --      1.0078                 1.0582                 1.0582
 Frc consts  --      0.0604                 0.5694                 0.5694
 IR Inten    --      0.0000                 1.8452                 1.8452
 Raman Activ --      0.0000                 0.0001                 0.0001

                      4                      5                      6
                      A                      A                      A
 Frequencies --   1049.2059              1273.9665              1273.9665
 Red. masses --      3.6077                 1.4541                 1.4541
 Frc consts  --      2.3400                 1.3904                 1.3904
 IR Inten    --      0.0000                 0.0000                 0.0000
 Raman Activ --     20.8731                 4.4101                 4.4101

                      7                      8                      9
                      A                      A                      A
 Frequencies --   1515.9656              1562.9689              1612.5242
 Red. masses --      1.1979                 1.2075                 1.0209
 Frc consts  --      1.6220                 1.7379                 1.5641
 IR Inten    --      0.2867                 0.0000                 0.0000
 Raman Activ --      0.0000                 0.7265                14.4555

                     10                     11                     12
                      A                      A                      A
 Frequencies --   1612.5242              1624.5625              1624.5625
 Red. masses --      1.0209                 1.0618                 1.0618
 Frc consts  --      1.5641                 1.6511                 1.6511
 IR Inten    --      0.0000                10.7902                10.7902
 Raman Activ --     14.4555                 4.2740                 4.2740

                     13                     14                     15
                      A                      A                      A
 Frequencies --   3161.4374              3175.4540              3208.7774
 Red. masses --      1.0344                 1.0390                 1.1035
 Frc consts  --      6.0913                 6.1727                 6.6942
 IR Inten    --     86.2270                 0.0000                 0.0000
 Raman Activ --      0.0000               283.5197                72.5652

                     16                     17                     18
                      A                      A                      A
 Frequencies --   3208.7775              3234.8674              3234.8676
 Red. masses --      1.1035                 1.1025                 1.1025
 Frc consts  --      6.6942                 6.7974                 6.7974
 IR Inten    --      0.0000                91.5914                91.5915
 Raman Activ --     72.5652                59.4236                59.4236

 - Thermochemistry -
 -------------------
 Temperature   298.150 Kelvin.  Pressure   1.00000 Atm.
 Atom     1 has atomic number  6 and mass  12.00000

 Molecular mass:    30.04695 amu.
 Principal axes and moments of inertia in atomic units:
                           1         2         3
     Eigenvalues --    21.97416  91.46575  91.46575
           X            0.95710  -0.00000  -0.28977
           Y           -0.05556   0.98144  -0.18352
           Z            0.28440   0.19175   0.93934
 This molecule is a prolate symmetric top.
 Rotational symmetry number  1.
 Rotational temperatures (Kelvin)      3.94163     0.94695     0.94695
 Rotational constants (GHZ):          82.13017    19.73133    19.73133
    1 imaginary frequencies ignored.
 Zero-point vibrational energy     205074.4 (Joules/Mol)
                                   49.01396 (Kcal/Mol)
 Vibrational temperatures:   1374.99  1374.99  1509.57  1832.95  1832.95
          (Kelvin)           2181.14  2248.76  2320.06  2320.06  2337.38
                             2337.38  4548.60  4568.77  4616.72  4616.72
                             4654.25  4654.25

 Zero-point correction=                           0.078109 (Hartree/Particle)
 Thermal correction to Energy=                    0.081104
 Thermal correction to Enthalpy=                  0.082049
 Thermal correction to Gibbs Free Energy=         0.055256
 Sum of electronic and zero-point Energies=            -79.168954
 Sum of electronic and thermal Energies=               -79.165959
 Sum of electronic and thermal Enthalpies=             -79.165014
 Sum of electronic and thermal Free Energies=          -79.191807

                     E (Thermal)             CV                S
                      KCal/Mol        Cal/Mol-Kelvin    Cal/Mol-Kelvin
 Total                   50.894              7.795             56.391
 Electronic               0.000              0.000              0.000
 Translational            0.889              2.981             36.134
 Rotational               0.889              2.981             19.847
 Vibrational             49.116              1.834              0.410

 Optimization completed.
    -- Stationary point found.
 Normal termination of Gaussian 16 at Mon Oct 10 14:39:58 2022.
