 Gaussian 16, Revision A.03,
 Gaussian 16:  ES64L-G16RevA.03 25-Dec-2016

 ----------------------------------------------------
 #p opt=tight freq hf/6-311++g(d,p) geom=connectivity
 ----------------------------------------------------

 -------------------
 Title Card Required
 -------------------
 Symbolic Z-matrix:
 Charge =  0 Multiplicity = 1

 SCF Done:  E(RHF) =  -195.193466734     A.U. after   11 cycles
 SCF Done:  E(RHF) =  -195.205853709     A.U. after   11 cycles
 SCF Done:  E(RHF) =  -195.209694084     A.U. after   10 cycles
 SCF Done:  E(RHF) =  -195.210675579     A.U. after   10 cycles
 SCF Done:  E(RHF) =  -195.210742853     A.U. after    9 cycles
 SCF Done:  E(RHF) =  -195.210752546     A.U. after    8 cycles
 SCF Done:  E(RHF) =  -195.210752827     A.U. after    7 cycles
 SCF Done:  E(RHF) =  -195.210752835     A.U. after    6 cycles
 SCF Done:  E(RHF) =  -195.210752836     A.U. after    5 cycles
 Optimization completed.
    -- Stationary point found.
 Normal termination of Gaussian 16 at Mon Oct 10 14:12:12 2022.

 ----------------------------------------------------------------------
 #P Geom=AllCheck Guess=TCheck SCRF=Check GenChk RHF/6-311++G(d,p) Freq
 ----------------------------------------------------------------------

 Structure from the checkpoint file:  "c5h10.chk"
 -------------------
 Title Card Required
 -------------------
 Charge =  0 Multiplicity = 1

                         Standard orientation:
 ---------------------------------------------------------------------
 Center     Atomic      Atomic             Coordinates (Angstroms)
 Number     Number       Type             X           Y           Z
 ---------------------------------------------------------------------
      1          6           0       -0.000000    0.765021   -1.026101
      2          6           0       -0.531924   -1.117088    0.369774
      3          6           0       -0.000000    0.000000    1.302000
      4          6           0        0.531924    1.117088    0.369774
      5          1           0        0.593477    1.196894   -1.825899
      6          1           0       -1.019085    1.130150   -1.143049
      7          1           0       -1.618758   -1.103345    0.355981
      8          1           0       -0.232597   -2.108220    0.694440
      9          1           0       -0.788205    0.368627    1.950485
     10          1           0        0.788205   -0.368627    1.950485
     11          1           0        0.232597    2.108220    0.694440
     12          1           0        1.618758    1.103345    0.355981
     13          6           0        0.000000   -0.765021   -1.026101
     14          1           0        1.019085   -1.130150   -1.143049
     15          1           0       -0.593477   -1.196894   -1.825899
 ---------------------------------------------------------------------

 SCF Done:  E(RHF) =  -195.210752836     A.U. after    1 cycles

 The electronic state is 1-A.
 Alpha  occ. eigenvalues --  -11.21047 -11.21010 -11.21008 -11.20946 -11.20938
 Alpha  occ. eigenvalues --   -1.11464  -0.95799  -0.95752  -0.77809  -0.76991
 Alpha  occ. eigenvalues --   -0.65024  -0.64462  -0.57075  -0.56929  -0.47539
 Alpha  occ. eigenvalues --   -0.47454  -0.46410  -0.46051  -0.45978  -0.45001
 Alpha virt. eigenvalues --    0.04552   0.05755   0.05772   0.05905   0.07873
 Alpha virt. eigenvalues --    0.07979   0.08344   0.08353   0.08632   0.10929
 Alpha virt. eigenvalues --    0.15645   0.15785   0.16800   0.17505   0.17711

 Mulliken charges:
               1
     1  C   -0.199482
     2  C   -0.304698
     3  C   -0.284570
     4  C   -0.304698
     5  H    0.136067
     6  H    0.116006
     7  H    0.129387
     8  H    0.137834
     9  H    0.127171
    10  H    0.127171
    11  H    0.137834
    12  H    0.129387
    13  C   -0.199482
    14  H    0.116006
    15  H    0.136067
 Sum of Mulliken charges =  -0.00000

 Dipole moment (field-independent basis, Debye):
    X=              0.0000    Y=              0.0000    Z=             -0.0136  Tot=              0.0136
 Quadrupole moment (field-independent basis, Debye-Ang):
   XX=            -33.0918   YY=            -34.0083   ZZ=            -34.1837
   XY=             -0.4094   XZ=              0.0000   YZ=              0.0000

  Exact polarizability:  50.509   2.050  55.282  -0.000   0.000  56.072
 Approx polarizability:  48.111  -0.006  47.696  -0.000   0.000  47.823

                      1                      2                      3
                      B                      A                      B
 Frequencies --     10.8732               281.8539               585.7018
 Red. masses --      1.5653                 1.6052                 1.6867
 Frc consts  --      0.0001                 0.0751                 0.3409
 IR Inten    --      0.0057                 0.0093                 0.6632
 Raman Activ --      0.0271                 0.1608                 0.4778

                      4                      5                      6
                      A                      B                      A
 Frequencies --    659.1870               820.9893               881.1419
 Red. masses --      2.4236                 1.1689                 1.6603
 Frc consts  --      0.6205                 0.4642                 0.7595
 IR Inten    --      0.0404                 0.4532                 0.0862
 Raman Activ --      0.8535                 0.0401                 0.5670

                      7                      8                      9
                      B                      A                      B
 Frequencies --    933.5246               935.3611               959.0355
 Red. masses --      2.0540                 3.5573                 2.1521
 Frc consts  --      1.0546                 1.8337                 1.1662
 IR Inten    --      0.5150                 0.2866                 1.8093
 Raman Activ --      1.1158                29.8642                 0.3673

                     10                     11                     12
                      A                      B                      A
 Frequencies --    964.4258              1040.6580              1074.7026
 Red. masses --      2.2737                 1.2103                 1.2393
 Frc consts  --      1.2460                 0.7722                 0.8433
 IR Inten    --      1.8935                 0.9422                 0.4010
 Raman Activ --      5.0835                 0.3016                 2.5079

                     13                     14                     15
                      A                      B                      A
 Frequencies --   1105.4894              1124.8103              1290.2957
 Red. masses --      1.5969                 1.9857                 1.3915
 Frc consts  --      1.1498                 1.4802                 1.3650
 IR Inten    --      0.0058                 0.0122                 0.0081
 Raman Activ --      8.6666                 9.8656                 3.5246

                     16                     17                     18
                      B                      A                      B
 Frequencies --   1308.9323              1337.5633              1339.8012
 Red. masses --      1.4960                 1.5066                 1.3670
 Frc consts  --      1.5101                 1.5881                 1.4458
 IR Inten    --      0.3585                 0.1339                 0.4245
 Raman Activ --      0.3683                 0.7182                 7.1549

                     19                     20                     21
                      A                      B                      B
 Frequencies --   1385.3639              1421.3113              1438.4626
 Red. masses --      1.1145                 1.3430                 1.2587
 Frc consts  --      1.2603                 1.5984                 1.5345
 IR Inten    --      0.7357                 0.0347                 0.4871
 Raman Activ --      9.4131                 0.0325                 3.5911

                     22                     23                     24
                      A                      B                      A
 Frequencies --   1462.7637              1472.9695              1474.2227
 Red. masses --      1.3214                 1.5022                 1.4969
 Frc consts  --      1.6658                 1.9202                 1.9168
 IR Inten    --      0.0321                 0.0461                 0.0086
 Raman Activ --      0.7928                 0.1127                 0.1798

                     25                     26                     27
                      A                      B                      B
 Frequencies --   1603.6658              1610.7347              1619.2189
 Red. masses --      1.0816                 1.0889                 1.1019
 Frc consts  --      1.6389                 1.6645                 1.7022
 IR Inten    --      0.0586                 3.9689                 2.7651
 Raman Activ --     13.6208                10.3068                 1.3941

                     28                     29                     30
                      A                      A                      A
 Frequencies --   1619.6677              1647.9759              3149.1127
 Red. masses --      1.1059                 1.1126                 1.0747
 Frc consts  --      1.7093                 1.7803                 6.2793
 IR Inten    --      2.1745                 0.0844                18.5904
 Raman Activ --      1.7234                 0.8850               160.8771

                     31                     32                     33
                      B                      A                      B
 Frequencies --   3153.0739              3161.8194              3163.3283
 Red. masses --      1.0663                 1.0644                 1.0696
 Frc consts  --      6.2460                 6.2694                 6.3061
 IR Inten    --     45.1059                 1.0774                57.0039
 Raman Activ --     23.0009                91.7099                24.7763

                     34                     35                     36
                      A                      B                      A
 Frequencies --   3183.4463              3193.6885              3208.0849
 Red. masses --      1.0694                 1.0943                 1.0891
 Frc consts  --      6.3856                 6.5762                 6.6043
 IR Inten    --     78.5560                61.0037                30.4654
 Raman Activ --    137.4394                 9.3239               251.6264

                     37                     38                     39
                      B                      A                      B
 Frequencies --   3208.8906              3211.1993              3229.2281
 Red. masses --      1.1031                 1.0990                 1.1064
 Frc consts  --      6.6924                 6.6767                 6.7977
 IR Inten    --     50.1751                21.8000               166.7011
 Raman Activ --    101.5588               177.8785                48.7641

 - Thermochemistry -
 -------------------
 Temperature   298.150 Kelvin.  Pressure   1.00000 Atm.
 Atom     1 has atomic number  6 and mass  12.00000

 Molecular mass:    70.07825 amu.
 Principal axes and moments of inertia in atomic units:
                           1         2         3
     Eigenvalues --   276.33200 276.55234 479.32032
           X            0.00000   0.32336   0.94628
           Y            0.00000   0.94628  -0.32336
           Z            1.00000  -0.00000   0.00000
 This molecule is an asymmetric top.
 Rotational symmetry number  2.
 Rotational temperatures (Kelvin)      0.31344     0.31319     0.18070
 Rotational constants (GHZ):           6.53106     6.52586     3.76521
 Zero-point vibrational energy     390416.7 (Joules/Mol)
                                   93.31183 (Kcal/Mol)
 Warning -- explicit consideration of   3 degrees of freedom as
           vibrations may cause significant error
 Vibrational temperatures:     15.64   405.52   842.69   948.42  1181.22
          (Kelvin)           1267.77  1343.13  1345.78  1379.84  1387.59
                             1497.27  1546.26  1590.55  1618.35  1856.45
                             1883.26  1924.46  1927.68  1993.23  2044.95
                             2069.63  2104.59  2119.27  2121.08  2307.32
                             2317.49  2329.69  2330.34  2371.07  4530.87
                             4536.57  4549.15  4551.32  4580.27  4595.01
                             4615.72  4616.88  4620.20  4646.14

 Zero-point correction=                           0.148702 (Hartree/Particle)
 Thermal correction to Energy=                    0.153706
 Thermal correction to Enthalpy=                  0.154651
 Thermal correction to Gibbs Free Energy=         0.119545
 Sum of electronic and zero-point Energies=           -195.062051
 Sum of electronic and thermal Energies=              -195.057046
 Sum of electronic and thermal Enthalpies=            -195.056102
 Sum of electronic and thermal Free Energies=         -195.091207

                     E (Thermal)             CV                S
                      KCal/Mol        Cal/Mol-Kelvin    Cal/Mol-Kelvin
 Total                   96.452             17.048             73.885
 Electronic               0.000              0.000              0.000
 Translational            0.889              2.981             38.658
 Rotational               0.889              2.981             23.730
 Vibrational             94.675             11.087             11.497
 Vibration     1          0.593              1.987              7.845
 Vibration     2          0.681              1.707              1.522
 Vibration     3          0.943              1.062              0.475

 Optimization completed.
    -- Stationary point found.
 Normal termination of Gaussian 16 at Mon Oct 10 14:12:26 2022.
