 Gaussian 16, Revision A.03,
 Gaussian 16:  ES64L-G16RevA.03 25-Dec-2016

 ----------------------------------------------------
 #p opt=tight freq hf/6-311++g(d,p) geom=connectivity
 ----------------------------------------------------

 -------------------
 Title Card Required
 -------------------
 Symbolic Z-matrix:
 Charge =  0 Multiplicity = 1

 SCF Done:  E(RHF) =  -154.108325322     A.U. after   11 cycles
 SCF Done:  E(RHF) =  -154.111997430     A.U. after   10 cycles
 SCF Done:  E(RHF) =  -154.112300476     A.U. after    9 cycles
 SCF Done:  E(RHF) =  -154.112316268     A.U. after    8 cycles
 SCF Done:  E(RHF) =  -154.112317424     A.U. after    7 cycles
 SCF Done:  E(RHF) =  -154.112317428     A.U. after    5 cycles
 Optimization completed.
    -- Stationary point found.
 Normal termination of Gaussian 16 at Mon Oct 10 14:44:18 2022.

 ----------------------------------------------------------------------
 #P Geom=AllCheck Guess=TCheck SCRF=Check GenChk RHF/6-311++G(d,p) Freq
 ----------------------------------------------------------------------

 Structure from the checkpoint file:  "ch3och3.chk"
 -------------------
 Title Card Required
 -------------------
 Charge =  0 Multiplicity = 1

                         Standard orientation:
 ---------------------------------------------------------------------
 Center     Atomic      Atomic             Coordinates (Angstroms)
 Number     Number       Type             X           Y           Z
 ---------------------------------------------------------------------
      1          8           0        0.000000   -0.000000    0.568363
      2          6           0        0.000000    1.167361   -0.188053
      3          1           0       -0.000000    2.004286    0.497490
      4          1           0        0.884846    1.230309   -0.821311
      5          1           0       -0.884846    1.230309   -0.821311
      6          6           0       -0.000000   -1.167361   -0.188053
      7          1           0        0.000000   -2.004286    0.497490
      8          1           0       -0.884846   -1.230309   -0.821311
      9          1           0        0.884846   -1.230309   -0.821311
 ---------------------------------------------------------------------

 SCF Done:  E(RHF) =  -154.112317428     A.U. after    1 cycles

 The electronic state is 1-A.
 Alpha  occ. eigenvalues --  -20.55299 -11.26718 -11.26716  -1.38510  -0.97841
 Alpha  occ. eigenvalues --   -0.87411  -0.66519  -0.65662  -0.64885  -0.55404
 Alpha  occ. eigenvalues --   -0.53216  -0.47804  -0.42220
 Alpha virt. eigenvalues --    0.04149   0.05535   0.07134   0.07395   0.09069
 Alpha virt. eigenvalues --    0.09740   0.11401   0.14359   0.16350   0.16564
 Alpha virt. eigenvalues --    0.18434   0.18925   0.19987   0.20857   0.28046

 Mulliken charges:
               1
     1  O   -0.253710
     2  C   -0.219448
     3  H    0.129416
     4  H    0.108444
     5  H    0.108444
     6  C   -0.219448
     7  H    0.129416
     8  H    0.108444
     9  H    0.108444
 Sum of Mulliken charges =  -0.00000

 Dipole moment (field-independent basis, Debye):
    X=              0.0000    Y=             -0.0000    Z=             -1.5304  Tot=              1.5304
 Quadrupole moment (field-independent basis, Debye-Ang):
   XX=            -20.1199   YY=            -17.1454   ZZ=            -21.4704
   XY=             -0.0000   XZ=             -0.0000   YZ=              0.0000

  Exact polarizability:  26.864   0.000  31.471  -0.000  -0.000  26.690
 Approx polarizability:  23.281   0.000  23.735   0.000   0.000  23.650

                      1                      2                      3
                      A                      B                      A
 Frequencies --    202.0947               260.2844               438.6974
 Red. masses --      1.0304                 1.3273                 2.3090
 Frc consts  --      0.0248                 0.0530                 0.2618
 IR Inten    --      0.0000                 8.3893                 2.6235
 Raman Activ --      0.3088                 0.1073                 0.6175

                      4                      5                      6
                      A                      B                      A
 Frequencies --   1033.3557              1216.7338              1263.4851
 Red. masses --      3.6284                 1.5658                 1.2181
 Frc consts  --      2.2828                 1.3658                 1.1457
 IR Inten    --     45.6881                38.7763                 0.0000
 Raman Activ --     10.8076                 4.8921                 4.8972

                      7                      8                      9
                      B                      B                      A
 Frequencies --   1298.7354              1335.2693              1386.2669
 Red. masses --      1.3531                 3.6401                 1.6204
 Frc consts  --      1.3447                 3.8239                 1.8347
 IR Inten    --     12.3528               166.0879                11.8266
 Raman Activ --      1.0848                 0.8607                 1.9320

                     10                     11                     12
                      B                      A                      B
 Frequencies --   1584.5772              1607.1815              1618.1142
 Red. masses --      1.1287                 1.0439                 1.0470
 Frc consts  --      1.6697                 1.5888                 1.6152
 IR Inten    --      7.8875                 0.0000                13.2272
 Raman Activ --      3.1616                22.7740                 0.0132

                     13                     14                     15
                      B                      A                      A
 Frequencies --   1618.3580              1618.4683              1636.2325
 Red. masses --      1.0520                 1.1315                 1.0970
 Frc consts  --      1.6234                 1.7462                 1.7304
 IR Inten    --     12.7557                 1.8249                 1.3536
 Raman Activ --      1.4529                 6.5456                 7.5313

                     16                     17                     18
                      B                      A                      A
 Frequencies --   3120.9806              3135.8213              3170.7497
 Red. masses --      1.0361                 1.0387                 1.1057
 Frc consts  --      5.9460                 6.0179                 6.5493
 IR Inten    --     58.3580                77.2716                 0.0000
 Raman Activ --      0.3605               273.8362                13.6210

                     19                     20                     21
                      B                      B                      A
 Frequencies --   3172.6383              3258.6782              3260.7252
 Red. masses --      1.1038                 1.0970                 1.0978
 Frc consts  --      6.5462                 6.8637                 6.8771
 IR Inten    --    166.5656                52.2876                36.4353
 Raman Activ --    100.2620                72.4522               104.2758

 - Thermochemistry -
 -------------------
 Temperature   298.150 Kelvin.  Pressure   1.00000 Atm.
 Atom     1 has atomic number  8 and mass  15.99491

 Molecular mass:    46.04186 amu.
 Principal axes and moments of inertia in atomic units:
                           1         2         3
     Eigenvalues --    43.84666 178.77145 200.07531
           X           -0.00000   0.00000   1.00000
           Y            1.00000   0.00000   0.00000
           Z           -0.00000   1.00000  -0.00000
 This molecule is an asymmetric top.
 Rotational symmetry number  2.
 Rotational temperatures (Kelvin)      1.97538     0.48450     0.43291
 Rotational constants (GHZ):          41.16029    10.09524     9.02031
 Zero-point vibrational energy     222729.4 (Joules/Mol)
                                   53.23360 (Kcal/Mol)
 Warning -- explicit consideration of   3 degrees of freedom as
           vibrations may cause significant error
 Vibrational temperatures:    290.77   374.49   631.19  1486.77  1750.61
          (Kelvin)           1817.87  1868.59  1921.15  1994.53  2279.85
                             2312.38  2328.11  2328.46  2328.61  2354.17
                             4490.39  4511.75  4562.00  4564.72  4688.51
                             4691.46

 Zero-point correction=                           0.084833 (Hartree/Particle)
 Thermal correction to Energy=                    0.089077
 Thermal correction to Enthalpy=                  0.090021
 Thermal correction to Gibbs Free Energy=         0.060147
 Sum of electronic and zero-point Energies=           -154.027484
 Sum of electronic and thermal Energies=              -154.023240
 Sum of electronic and thermal Enthalpies=            -154.022296
 Sum of electronic and thermal Free Energies=         -154.052171

                     E (Thermal)             CV                S
                      KCal/Mol        Cal/Mol-Kelvin    Cal/Mol-Kelvin
 Total                   55.897             12.325             62.876
 Electronic               0.000              0.000              0.000
 Translational            0.889              2.981             37.406
 Rotational               0.889              2.981             20.600
 Vibrational             54.119              6.364              4.870
 Vibration     1          0.639              1.837              2.114
 Vibration     2          0.668              1.745              1.660
 Vibration     3          0.799              1.386              0.831

 Optimization completed.
    -- Stationary point found.
 Normal termination of Gaussian 16 at Mon Oct 10 14:44:21 2022.
