 Gaussian 16, Revision A.03,
 Gaussian 16:  ES64L-G16RevA.03 25-Dec-2016

 ----------------------------------------------------
 #p opt=tight freq hf/6-311++g(d,p) geom=connectivity
 ----------------------------------------------------

 -------------------
 Title Card Required
 -------------------
 Symbolic Z-matrix:
 Charge =  0 Multiplicity = 1

 SCF Done:  E(RHF) =  -383.434042714     A.U. after   13 cycles
 SCF Done:  E(RHF) =  -383.438273788     A.U. after   12 cycles
 SCF Done:  E(RHF) =  -383.438336162     A.U. after   11 cycles
 SCF Done:  E(RHF) =  -383.438337908     A.U. after   10 cycles
 SCF Done:  E(RHF) =  -383.438338046     A.U. after    9 cycles
 SCF Done:  E(RHF) =  -383.438338052     A.U. after    7 cycles
 Optimization completed.
    -- Stationary point found.
 Normal termination of Gaussian 16 at Mon Oct 10 13:48:59 2022.

 ----------------------------------------------------------------------
 #P Geom=AllCheck Guess=TCheck SCRF=Check GenChk RHF/6-311++G(d,p) Freq
 ----------------------------------------------------------------------

 Structure from the checkpoint file:  "c10h8.chk"
 -------------------
 Title Card Required
 -------------------
 Charge =  0 Multiplicity = 1

                         Standard orientation:
 ---------------------------------------------------------------------
 Center     Atomic      Atomic             Coordinates (Angstroms)
 Number     Number       Type             X           Y           Z
 ---------------------------------------------------------------------
      1          6           0        2.415566   -0.708315    0.000000
      2          6           0        1.242323   -1.392541   -0.000002
      3          6           0        0.000002   -0.703970    0.000000
      4          6           0        0.000001    0.703970    0.000000
      5          6           0        1.242322    1.392541   -0.000001
      6          6           0        2.415566    0.708315    0.000001
      7          1           0       -1.240409   -2.468616   -0.000000
      8          1           0        3.351254   -1.238455    0.000001
      9          1           0        1.240410   -2.468615   -0.000001
     10          6           0       -1.242326   -1.392543    0.000001
     11          6           0       -1.242326    1.392542    0.000000
     12          1           0        1.240409    2.468615   -0.000000
     13          1           0        3.351253    1.238456    0.000002
     14          6           0       -2.415565    0.708318   -0.000001
     15          6           0       -2.415564   -0.708318    0.000001
     16          1           0       -1.240408    2.468616   -0.000000
     17          1           0       -3.351255    1.238454   -0.000001
     18          1           0       -3.351254   -1.238455    0.000001
 ---------------------------------------------------------------------

 SCF Done:  E(RHF) =  -383.438338052     A.U. after    1 cycles

 The electronic state is 1-A.
 Alpha  occ. eigenvalues --  -11.24452 -11.24340 -11.23657 -11.23653 -11.23631
 Alpha  occ. eigenvalues --  -11.23623 -11.23508 -11.23505 -11.23429 -11.23428
 Alpha  occ. eigenvalues --   -1.18369  -1.11672  -1.05483  -1.01315  -0.98913
 Alpha  occ. eigenvalues --   -0.85616  -0.84129  -0.81853  -0.70932  -0.70656
 Alpha  occ. eigenvalues --   -0.68329  -0.62703  -0.61700  -0.58918  -0.58849
 Alpha  occ. eigenvalues --   -0.57035  -0.53703  -0.52576  -0.49130  -0.48036
 Alpha  occ. eigenvalues --   -0.45181  -0.38665  -0.32164  -0.29445
 Alpha virt. eigenvalues --    0.03847   0.04512   0.04546   0.05965   0.06073
 Alpha virt. eigenvalues --    0.08087   0.08118   0.08476   0.10391   0.10538
 Alpha virt. eigenvalues --    0.10883   0.12986   0.13368   0.13828   0.14706

 Mulliken charges:
               1
     1  C   -0.315194
     2  C   -0.151951
     3  C    0.208851
     4  C    0.208852
     5  C   -0.151951
     6  C   -0.315194
     7  H    0.165318
     8  H    0.197405
     9  H    0.165318
    10  C   -0.151962
    11  C   -0.151960
    12  H    0.165318
    13  H    0.197405
    14  C   -0.315193
    15  C   -0.315191
    16  H    0.165318
    17  H    0.197405
    18  H    0.197405
 Sum of Mulliken charges =  -0.00000

 Dipole moment (field-independent basis, Debye):
    X=             -0.0000    Y=              0.0000    Z=              0.0000  Tot=              0.0000
 Quadrupole moment (field-independent basis, Debye-Ang):
   XX=            -51.6909   YY=            -51.7495   ZZ=            -65.9870
   XY=             -0.0000   XZ=              0.0000   YZ=              0.0000

  Exact polarizability: 154.385  -0.000 112.580   0.000   0.000  61.838
 Approx polarizability: 143.639  -0.000 114.829   0.000   0.000  68.485

                      1                      2                      3
                      A                      A                      A
 Frequencies --    187.7196               202.1968               387.7127
 Red. masses --      4.1940                 3.3563                 3.8379
 Frc consts  --      0.0871                 0.0808                 0.3399
 IR Inten    --      3.1502                 0.0000                 2.0137
 Raman Activ --      0.0000                 0.0000                 0.0000

                      4                      5                      6
                      A                      A                      A
 Frequencies --    431.2044               518.0313               533.8980
 Red. masses --      3.1522                 3.1827                 2.4567
 Frc consts  --      0.3453                 0.5032                 0.4126
 IR Inten    --      0.0000                 0.0000                31.0063
 Raman Activ --      2.2625                 0.2500                 0.0000

                      7                      8                      9
                      A                      A                      A
 Frequencies --    547.7376               552.5151               670.6652
 Red. masses --      6.5925                 7.0697                 6.5166
 Frc consts  --      1.1653                 1.2716                 1.7270
 IR Inten    --      0.0000                 0.0000                 4.8904
 Raman Activ --     12.7764                 8.9023                 0.0000

                     10                     11                     12
                      A                      A                      A
 Frequencies --    677.7409               802.4133               824.3676
 Red. masses --      3.1827                 1.1475                 4.6736
 Frc consts  --      0.8613                 0.4353                 1.8713
 IR Inten    --      0.0000                 0.0000                 0.0000
 Raman Activ --      0.0000                 0.9173                39.3539

                     13                     14                     15
                      A                      A                      A
 Frequencies --    848.3811               854.7542               880.3310
 Red. masses --      3.1716                 5.4744                 1.3780
 Frc consts  --      1.3449                 2.3565                 0.6292
 IR Inten    --      0.0000                 1.4119               153.7031
 Raman Activ --      0.0894                 0.0000                 0.0000

                     16                     17                     18
                      A                      A                      A
 Frequencies --    932.9343               983.0446              1016.8511
 Red. masses --      1.2761                 1.6950                 4.9899
 Frc consts  --      0.6544                 0.9651                 3.0399
 IR Inten    --      0.0000                 0.0000                 0.0000
 Raman Activ --      0.0000                 0.0151                 0.1412

                     19                     20                     21
                      A                      A                      A
 Frequencies --   1061.8138              1078.8878              1098.0038
 Red. masses --      3.6007                 1.3093                 1.3837
 Frc consts  --      2.3919                 0.8979                 0.9828
 IR Inten    --      4.3301                 0.0000                 4.1141
 Raman Activ --      0.0000                 4.4959                 0.0000

                     22                     23                     24
                      A                      A                      A
 Frequencies --   1103.8914              1105.7042              1110.8428
 Red. masses --      2.1911                 1.3239                 1.3214
 Frc consts  --      1.5731                 0.9536                 0.9607
 IR Inten    --      0.0000                 0.0000                 0.0000
 Raman Activ --     35.7090                 0.0000                 1.4270

                     25                     26                     27
                      A                      A                      A
 Frequencies --   1176.7984              1233.1608              1258.4231
 Red. masses --      1.9438                 1.7823                 1.2645
 Frc consts  --      1.5860                 1.5969                 1.1798
 IR Inten    --      4.4344                 5.2205                 0.0000
 Raman Activ --      0.0000                 0.0000                11.5272

                     28                     29                     30
                      A                      A                      A
 Frequencies --   1272.0843              1297.9846              1358.8884
 Red. masses --      1.0741                 1.4062                 1.6909
 Frc consts  --      1.0241                 1.3958                 1.8397
 IR Inten    --      0.0000                 0.0998                 0.0000
 Raman Activ --      5.8920                 0.0000                 2.4986

                     31                     32                     33
                      A                      A                      A
 Frequencies --   1376.1247              1456.5791              1471.3654
 Red. masses --      1.8733                 2.3418                 9.5268
 Frc consts  --      2.0901                 2.9273                12.1517
 IR Inten    --      6.2984                 0.7206                 0.0000
 Raman Activ --      0.0000                 0.0001               326.1591

                     34                     35                     36
                      A                      A                      A
 Frequencies --   1524.8106              1603.0277              1604.6679
 Red. masses --      1.5078                 2.2646                 1.8224
 Frc consts  --      2.0655                 3.4286                 2.7648
 IR Inten    --      4.0661                 0.0000                 0.0000
 Raman Activ --      0.0000                 0.9245                71.1035

                     37                     38                     39
                      A                      A                      A
 Frequencies --   1663.1325              1764.2176              1780.9169
 Red. masses --      2.9933                 6.6121                 4.7358
 Frc consts  --      4.8781                12.1252                 8.8498
 IR Inten    --     11.5905                 0.0000                 3.7875
 Raman Activ --      0.0000                69.2465                 0.0000

                     40                     41                     42
                      A                      A                      A
 Frequencies --   1823.0346              3313.9883              3316.0428
 Red. masses --      5.8137                 1.0864                 1.0862
 Frc consts  --     11.3839                 7.0301                 7.0374
 IR Inten    --      0.0000                 0.0000                 0.7042
 Raman Activ --      5.0264                33.1577                 0.0000

                     43                     44                     45
                      A                      A                      A
 Frequencies --   3319.6782              3324.8120              3334.5868
 Red. masses --      1.0899                 1.0897                 1.0965
 Frc consts  --      7.0768                 7.0971                 7.1836
 IR Inten    --      2.2362                 0.0000                 0.0000
 Raman Activ --      0.0000               208.7151               126.5853

                     46                     47                     48
                      A                      A                      A
 Frequencies --   3337.6285              3347.5527              3349.2443
 Red. masses --      1.0965                 1.0993                 1.0990
 Frc consts  --      7.1969                 7.2582                 7.2633
 IR Inten    --     66.2538                48.2222                 0.0000
 Raman Activ --      0.0000                 0.0000               522.6728

 - Thermochemistry -
 -------------------
 Temperature   298.150 Kelvin.  Pressure   1.00000 Atm.
 Atom     1 has atomic number  6 and mass  12.00000

 Molecular mass:   128.06260 amu.
 Principal axes and moments of inertia in atomic units:
                           1         2         3
     Eigenvalues --   570.678781448.557222019.23601
           X            1.00000   0.00000   0.00000
           Y           -0.00000   1.00000   0.00000
           Z           -0.00000  -0.00000   1.00000
 This molecule is an asymmetric top.
 Rotational symmetry number  1.
 Warning -- assumption of classical behavior for rotation
           may cause significant error
 Rotational temperatures (Kelvin)      0.15177     0.05979     0.04289
 Rotational constants (GHZ):           3.16245     1.24589     0.89377
 Zero-point vibrational energy     411039.2 (Joules/Mol)
                                   98.24073 (Kcal/Mol)
 Warning -- explicit consideration of   8 degrees of freedom as
           vibrations may cause significant error
 Vibrational temperatures:    270.09   290.92   557.83   620.41   745.33
          (Kelvin)            768.16   788.07   794.95   964.94   975.12
                             1154.49  1186.08  1220.63  1229.80  1266.60
                             1342.28  1414.38  1463.02  1527.71  1552.28
                             1579.78  1588.25  1590.86  1598.26  1693.15
                             1774.24  1810.59  1830.25  1867.51  1955.14
                             1979.94  2095.69  2116.97  2193.86  2306.40
                             2308.76  2392.88  2538.32  2562.34  2622.94
                             4768.09  4771.05  4776.28  4783.66  4797.73
                             4802.10  4816.38  4818.82

 Zero-point correction=                           0.156557 (Hartree/Particle)
 Thermal correction to Energy=                    0.162895
 Thermal correction to Enthalpy=                  0.163839
 Thermal correction to Gibbs Free Energy=         0.125636
 Sum of electronic and zero-point Energies=           -383.281781
 Sum of electronic and thermal Energies=              -383.275443
 Sum of electronic and thermal Enthalpies=            -383.274499
 Sum of electronic and thermal Free Energies=         -383.312702

                     E (Thermal)             CV                S
                      KCal/Mol        Cal/Mol-Kelvin    Cal/Mol-Kelvin
 Total                  102.218             26.416             80.404
 Electronic               0.000              0.000              0.000
 Translational            0.889              2.981             40.455
 Rotational               0.889              2.981             28.903
 Vibrational            100.440             20.455             11.046
 Vibration     1          0.632              1.857              2.250
 Vibration     2          0.639              1.837              2.113
 Vibration     3          0.756              1.496              1.009
 Vibration     4          0.792              1.402              0.855
 Vibration     5          0.873              1.210              0.615
 Vibration     6          0.889              1.175              0.579
 Vibration     7          0.903              1.145              0.549
 Vibration     8          0.908              1.134              0.539

 Optimization completed.
    -- Stationary point found.
 Normal termination of Gaussian 16 at Mon Oct 10 13:50:29 2022.
