 Gaussian 16, Revision A.03,
 Gaussian 16:  ES64L-G16RevA.03 25-Dec-2016

 -------------------------------------------------------------------
 #p opt=(tight,modredundant) freq hf/6-311++g(d,p) geom=connectivity
 -------------------------------------------------------------------

 -------------------
 Title Card Required
 -------------------
 Symbolic Z-matrix:
 Charge =  0 Multiplicity = 1

 SCF Done:  E(RHF) =  -195.163657210     A.U. after   12 cycles
 SCF Done:  E(RHF) =  -195.196886602     A.U. after   11 cycles
 SCF Done:  E(RHF) =  -195.207666873     A.U. after   11 cycles
 SCF Done:  E(RHF) =  -195.209864504     A.U. after   11 cycles
 SCF Done:  E(RHF) =  -195.210565260     A.U. after   10 cycles
 SCF Done:  E(RHF) =  -195.210717192     A.U. after    9 cycles
 SCF Done:  E(RHF) =  -195.210749451     A.U. after    9 cycles
 SCF Done:  E(RHF) =  -195.210751021     A.U. after    7 cycles
 SCF Done:  E(RHF) =  -195.210751072     A.U. after    6 cycles
 SCF Done:  E(RHF) =  -195.210751077     A.U. after    6 cycles
 Optimization completed.
    -- Stationary point found.
 Normal termination of Gaussian 16 at Mon Oct 10 14:25:02 2022.

 ----------------------------------------------------------------------
 #P Geom=AllCheck Guess=TCheck SCRF=Check GenChk RHF/6-311++G(d,p) Freq
 ----------------------------------------------------------------------

 Structure from the checkpoint file:  "c5h10.chk"
 -------------------
 Title Card Required
 -------------------
 Charge =  0 Multiplicity = 1

                         Standard orientation:
 ---------------------------------------------------------------------
 Center     Atomic      Atomic             Coordinates (Angstroms)
 Number     Number       Type             X           Y           Z
 ---------------------------------------------------------------------
      1          6           0        0.005864    1.250513    0.264968
      2          6           0       -0.781259   -1.035010    0.070550
      3          6           0        0.771509   -1.042288    0.070554
      4          6           0        1.199081    0.413135   -0.203225
      5          1           0        0.010604    2.261508   -0.130536
      6          1           0        0.006226    1.324120    1.351611
      7          1           0       -1.157548   -1.356637    1.037105
      8          1           0       -1.194463   -1.715080   -0.666934
      9          1           0        1.144765   -1.367433    1.037105
     10          1           0        1.178316   -1.726208   -0.666930
     11          1           0        2.128884    0.676561    0.290757
     12          1           0        1.347659    0.564876   -1.270344
     13          6           0       -1.195146    0.424366   -0.203221
     14          1           0       -1.342298    0.577495   -1.270343
     15          1           0       -2.122443    0.696497    0.290753
 ---------------------------------------------------------------------

 SCF Done:  E(RHF) =  -195.210751077     A.U. after    1 cycles

 The electronic state is 1-A.
 Alpha  occ. eigenvalues --  -11.21047 -11.21010 -11.21008 -11.20945 -11.20938
 Alpha  occ. eigenvalues --   -1.11464  -0.95807  -0.95745  -0.77808  -0.76991
 Alpha  occ. eigenvalues --   -0.65024  -0.64462  -0.57076  -0.56928  -0.47535
 Alpha  occ. eigenvalues --   -0.47457  -0.46411  -0.46045  -0.45981  -0.45003
 Alpha virt. eigenvalues --    0.04552   0.05763   0.05766   0.05905   0.07870
 Alpha virt. eigenvalues --    0.07984   0.08325   0.08369   0.08630   0.10931
 Alpha virt. eigenvalues --    0.15642   0.15802   0.16775   0.17541   0.17697

 Mulliken charges:
               1
     1  C   -0.180911
     2  C   -0.299984
     3  C   -0.299974
     4  C   -0.255773
     5  H    0.133402
     6  H    0.114338
     7  H    0.128790
     8  H    0.131064
     9  H    0.128791
    10  H    0.131062
    11  H    0.139817
    12  H    0.122663
    13  C   -0.255764
    14  H    0.122662
    15  H    0.139817
 Sum of Mulliken charges =   0.00000

 Dipole moment (field-independent basis, Debye):
    X=              0.0001    Y=              0.0136    Z=             -0.0002  Tot=              0.0136
 Quadrupole moment (field-independent basis, Debye-Ang):
   XX=            -34.1622   YY=            -34.1848   ZZ=            -32.9368
   XY=             -0.0001   XZ=              0.0002   YZ=              0.0425

  Exact polarizability:  56.056  -0.000  56.055  -0.001  -0.146  49.753
 Approx polarizability:  47.739   0.000  47.822  -0.001  -0.119  48.071

 ******    1 imaginary frequencies (negative Signs) ******

                      1                      2                      3
                      A                      A                      A
 Frequencies --    -10.8109               281.9168               585.7611
 Red. masses --      1.5648                 1.6057                 1.6867
 Frc consts  --      0.0001                 0.0752                 0.3410
 IR Inten    --      0.0058                 0.0094                 0.6633
 Raman Activ --      0.0314                 0.1597                 0.4787

                      4                      5                      6
                      A                      A                      A
 Frequencies --    659.3273               820.4772               881.7895
 Red. masses --      2.4257                 1.1717                 1.6463
 Frc consts  --      0.6213                 0.4647                 0.7542
 IR Inten    --      0.0362                 0.4503                 0.0926
 Raman Activ --      0.8430                 0.0629                 0.4453

                      7                      8                      9
                      A                      A                      A
 Frequencies --    933.5923               935.0237               959.2214
 Red. masses --      2.0553                 3.6141                 2.1061
 Frc consts  --      1.0555                 1.8616                 1.1418
 IR Inten    --      0.5334                 0.2573                 1.8876
 Raman Activ --      1.3466                29.5282                 0.3760

                     10                     11                     12
                      A                      A                      A
 Frequencies --    964.2619              1040.6655              1075.3230
 Red. masses --      2.3168                 1.2118                 1.2227
 Frc consts  --      1.2692                 0.7732                 0.8330
 IR Inten    --      1.8151                 0.9255                 0.4361
 Raman Activ --      5.2700                 0.3226                 2.1701

                     13                     14                     15
                      A                      A                      A
 Frequencies --   1103.2373              1126.5919              1290.0668
 Red. masses --      1.6612                 1.9323                 1.3949
 Frc consts  --      1.1912                 1.4450                 1.3678
 IR Inten    --      0.0000                 0.0059                 0.0010
 Raman Activ --      9.3601                 9.4998                 3.4960

                     16                     17                     18
                      A                      A                      A
 Frequencies --   1310.1442              1332.6274              1344.0174
 Red. masses --      1.4933                 1.4433                 1.4243
 Frc consts  --      1.5103                 1.5101                 1.5159
 IR Inten    --      0.4064                 0.0822                 0.4424
 Raman Activ --      0.0399                 4.1897                 3.9967

                     19                     20                     21
                      A                      A                      A
 Frequencies --   1385.1309              1421.4827              1438.2368
 Red. masses --      1.1131                 1.3430                 1.2579
 Frc consts  --      1.2582                 1.5989                 1.5330
 IR Inten    --      0.6817                 0.0767                 0.5012
 Raman Activ --      9.4033                 0.0074                 3.6705

                     22                     23                     24
                      A                      A                      A
 Frequencies --   1462.7992              1472.4670              1474.7192
 Red. masses --      1.3214                 1.5043                 1.4957
 Frc consts  --      1.6659                 1.9216                 1.9165
 IR Inten    --      0.0295                 0.0017                 0.0458
 Raman Activ --      0.7790                 0.1153                 0.1804

                     25                     26                     27
                      A                      A                      A
 Frequencies --   1603.6929              1610.6839              1618.7817
 Red. masses --      1.0814                 1.0890                 1.1047
 Frc consts  --      1.6387                 1.6646                 1.7056
 IR Inten    --      0.0470                 3.9864                 2.1259
 Raman Activ --     13.5623                10.3342                 1.5193

                     28                     29                     30
                      A                      A                      A
 Frequencies --   1620.1714              1647.9724              3148.3228
 Red. masses --      1.1031                 1.1126                 1.0733
 Frc consts  --      1.7061                 1.7804                 6.2683
 IR Inten    --      2.8000                 0.0893                25.7363
 Raman Activ --      1.6067                 0.8836               145.5997

                     31                     32                     33
                      A                      A                      A
 Frequencies --   3154.8942              3158.7232              3165.5983
 Red. masses --      1.0689                 1.0648                 1.0678
 Frc consts  --      6.2683                 6.2596                 6.3046
 IR Inten    --     23.0486                47.6996                23.9061
 Raman Activ --     15.1443               100.7516                35.8265

                     34                     35                     36
                      A                      A                      A
 Frequencies --   3183.1367              3193.7914              3207.8406
 Red. masses --      1.0700                 1.0938                 1.0926
 Frc consts  --      6.3878                 6.5736                 6.6244
 IR Inten    --     78.5658                63.3935                42.6082
 Raman Activ --    139.8139                 8.8614               202.6518

                     37                     38                     39
                      A                      A                      A
 Frequencies --   3209.9626              3210.2876              3229.2670
 Red. masses --      1.0953                 1.1033                 1.1064
 Frc consts  --      6.6494                 6.6993                 6.7977
 IR Inten    --     16.5749                42.7034               166.2250
 Raman Activ --    223.0416               105.8977                49.3413

 - Thermochemistry -
 -------------------
 Temperature   298.150 Kelvin.  Pressure   1.00000 Atm.
 Atom     1 has atomic number  6 and mass  12.00000

 Molecular mass:    70.07825 amu.
 Principal axes and moments of inertia in atomic units:
                           1         2         3
     Eigenvalues --   276.40562 276.48256 479.33068
           X            0.99999  -0.00348  -0.00001
           Y            0.00348   0.99999  -0.00153
           Z            0.00001   0.00153   1.00000
 This molecule is an asymmetric top.
 Rotational symmetry number  1.
 Rotational temperatures (Kelvin)      0.31336     0.31327     0.18070
 Rotational constants (GHZ):           6.52932     6.52750     3.76513
    1 imaginary frequencies ignored.
 Zero-point vibrational energy     390353.5 (Joules/Mol)
                                   93.29672 (Kcal/Mol)
 Warning -- explicit consideration of   2 degrees of freedom as
           vibrations may cause significant error
 Vibrational temperatures:    405.62   842.78   948.62  1180.48  1268.70
          (Kelvin)           1343.23  1345.29  1380.11  1387.36  1497.29
                             1547.15  1587.31  1620.91  1856.12  1885.01
                             1917.35  1933.74  1992.89  2045.20  2069.30
                             2104.64  2118.55  2121.79  2307.36  2317.41
                             2329.07  2331.07  2371.06  4529.73  4539.19
                             4544.70  4554.59  4579.82  4595.15  4615.37
                             4618.42  4618.89  4646.19

 Zero-point correction=                           0.148678 (Hartree/Particle)
 Thermal correction to Energy=                    0.152763
 Thermal correction to Enthalpy=                  0.153707
 Thermal correction to Gibbs Free Energy=         0.121675
 Sum of electronic and zero-point Energies=           -195.062073
 Sum of electronic and thermal Energies=              -195.057988
 Sum of electronic and thermal Enthalpies=            -195.057044
 Sum of electronic and thermal Free Energies=         -195.089076

                     E (Thermal)             CV                S
                      KCal/Mol        Cal/Mol-Kelvin    Cal/Mol-Kelvin
 Total                   95.860             15.061             67.417
 Electronic               0.000              0.000              0.000
 Translational            0.889              2.981             38.658
 Rotational               0.889              2.981             25.108
 Vibrational             94.083              9.099              3.651
 Vibration     1          0.681              1.707              1.522
 Vibration     2          0.943              1.062              0.475

 Optimization completed.
    -- Stationary point found.
 Normal termination of Gaussian 16 at Mon Oct 10 14:25:21 2022.
